                         Program Version 6.0.1  -  RELEASE   -
|  1> # avogadro generated ORCA input file
|  2> # Basic Mode
|  3> #
|  4> !BP86 DEF2-SVP NUMFREQ
|  5>
|  6> * xyz 0 1
|  7>    C       -4.32757        1.16257       -0.02268
|  8>    C       -2.87154        1.60036       -0.06503
|  9>    H       -4.82840        1.41352       -0.98185
| 10>    H       -4.85575        1.67572        0.80886
| 11>    H       -4.38506        0.06513        0.13706
| 12>    O       -2.80687        2.98394       -0.26834
| 13>    H       -2.36448        1.06909       -0.90114
| 14>    H       -2.38923        1.33694        0.90236
| 15>    H       -1.84187        3.20772       -0.32752
| 16> *
| 17>
| 18>
| 19>                          ****END OF INPUT****

CARTESIAN COORDINATES (ANGSTROEM)
---------------------------------
  C     -4.327570    1.162570   -0.022680
  C     -2.871540    1.600360   -0.065030
  H     -4.828400    1.413520   -0.981850
  H     -4.855750    1.675720    0.808860
  H     -4.385060    0.065130    0.137060
  O     -2.806870    2.983940   -0.268340
  H     -2.364480    1.069090   -0.901140
  H     -2.389230    1.336940    0.902360
  H     -1.841870    3.207720   -0.327520

 Total Charge           Charge          ....    0
 Multiplicity           Mult            ....    1
 Number of Electrons    NEL             ....   26
 Basis Dimension        Dim             ....   72

ORBITAL ENERGIES
----------------

  NO   OCC          E(Eh)            E(eV)
   0   2.0000     -18.767347      -510.6855
   1   2.0000      -9.951807      -270.8024
   2   2.0000      -9.903931      -269.4997
   3   2.0000      -0.916916       -24.9505
   4   2.0000      -0.665913       -18.1204
   5   2.0000      -0.534272       -14.5383
   6   2.0000      -0.460360       -12.5270
   7   2.0000      -0.413967       -11.2646
   8   2.0000      -0.353061        -9.6073
   9   2.0000      -0.335634        -9.1331
  10   2.0000      -0.317671        -8.6443
  11   2.0000      -0.277065        -7.5393
  12   2.0000      -0.213312        -5.8045
  13   0.0000       0.029160         0.7935
  14   0.0000       0.065490         1.7821
  15   0.0000       0.095353         2.5947
  16   0.0000       0.103744         2.8230
  17   0.0000       0.116106         3.1594

MULLIKEN ATOMIC CHARGES
-----------------------
   0 C :   -0.083948
   1 C :    0.087829
   2 H :    0.040471
   3 H :    0.041059
   4 H :    0.030090
   5 O :   -0.298327
   6 H :    0.005372
   7 H :    0.005286
   8 H :    0.172168
Sum of atomic charges:    0.0000000

LOEWDIN ATOMIC CHARGES
----------------------
   0 C :   -0.085365
   1 C :    0.040987
   2 H :    0.031441
   3 H :    0.031628
   4 H :    0.032874
   5 O :   -0.147607
   6 H :    0.002956
   7 H :    0.002661
   8 H :    0.090425

  Mayer bond orders larger than 0.100000
B(  0-C ,  1-C ) :   1.1164 B(  0-C ,  2-H ) :   0.9653 B(  0-C ,  3-H ) :   0.9654
B(  0-C ,  4-H ) :   0.9601 B(  1-C ,  5-O ) :   1.0875 B(  1-C ,  6-H ) :   0.9395
B(  1-C ,  7-H ) :   0.9385 B(  5-O ,  8-H ) :   0.9715

FINAL SINGLE POINT ENERGY      -154.918956186215

DIPOLE MOMENT
-------------

Method             : SCF
Type of density    : Electron Density
Multiplicity       :   1
Irrep              :   0
Energy             :  -154.9189561862145013 Eh
Relativity type    :
Basis              : AO
                                X                 Y                 Z
Electronic contribution:      1.288828011       2.436947039      -0.331146520
Nuclear contribution   :     -0.782222131      -2.726670917       0.355938385
                        -----------------------------------------
Total Dipole Moment    :      0.506605880      -0.289723877       0.024791865
                        -----------------------------------------
Magnitude (a.u.)       :      0.584126767
Magnitude (Debye)      :      1.484732247

VIBRATIONAL FREQUENCIES
-----------------------

Scaling factor for frequencies =  1.000000000  (already applied!)

     0:       0.00 cm**-1
     1:       0.00 cm**-1
     2:       0.00 cm**-1
     3:       0.00 cm**-1
     4:       0.00 cm**-1
     5:       0.00 cm**-1
     6:     291.98 cm**-1
     7:     406.87 cm**-1
     8:     568.92 cm**-1
     9:     793.54 cm**-1
    10:     901.32 cm**-1
    11:    1042.12 cm**-1
    12:    1148.18 cm**-1
    13:    1165.24 cm**-1
    14:    1258.33 cm**-1
    15:    1282.79 cm**-1
    16:    1332.37 cm**-1
    17:    1407.67 cm**-1
    18:    1423.07 cm**-1
    19:    1429.30 cm**-1
    20:    1451.56 cm**-1
    21:    2917.05 cm**-1
    22:    2952.07 cm**-1
    23:    2959.19 cm**-1
    24:    3047.22 cm**-1
    25:    3047.71 cm**-1
    26:    3470.07 cm**-1

IR SPECTRUM
-----------

 Mode   freq       eps      Int      T**2         TX        TY        TZ
       cm**-1   L/(mol*cm) km/mol    a.u.
----------------------------------------------------------------------------
  6:    291.98   0.000020    0.10  0.000022  (-0.001223  0.002169  0.003952)
  7:    406.87   0.001638    8.28  0.001256  (-0.011981 -0.033076  0.004328)
  8:    568.92   0.022639  114.41  0.012418  ( 0.002150  0.017468  0.110037)
  9:    793.54   0.000095    0.48  0.000037  ( 0.000815 -0.000306  0.006041)
 10:    901.32   0.000916    4.63  0.000317  ( 0.002683  0.017272 -0.003426)
 11:   1042.12   0.004529   22.89  0.001356  ( 0.012110  0.034318 -0.005637)
 12:   1148.18   0.001235    6.24  0.000336  ( 0.000516  0.001571 -0.018247)
 13:   1165.24   0.009818   49.61  0.002629  ( 0.006119  0.050436 -0.006934)
 14:   1258.33   0.000188    0.95  0.000047  ( 0.001594  0.006554  0.001109)
 15:   1282.79   0.021546  108.88  0.005241  (-0.010659 -0.070711  0.011309)
 16:   1332.37   0.001772    8.95  0.000415  (-0.010860 -0.017207  0.000981)
 17:   1407.67   0.000982    4.96  0.000218  ( 0.002167 -0.000545  0.014584)
 18:   1423.07   0.000760    3.84  0.000167  ( 0.012367 -0.000382 -0.003686)
 19:   1429.30   0.001169    5.91  0.000255  (-0.007216  0.014252 -0.000122)
 20:   1451.56   0.000943    4.76  0.000203  (-0.013472 -0.004524  0.000853)
 21:   2917.05   0.015177   76.70  0.001624  (-0.027860  0.028181 -0.007299)
 22:   2952.07   0.003646   18.42  0.000385  (-0.018377 -0.006062  0.003301)
 23:   2959.19   0.015290   77.27  0.001612  (-0.002070 -0.005352 -0.039742)
 24:   3047.22   0.006639   33.55  0.000680  ( 0.008435 -0.021529 -0.012052)
 25:   3047.71   0.007864   39.74  0.000805  ( 0.005274 -0.009202  0.026320)
 26:   3470.07   0.003054   15.43  0.000275  ( 0.015185  0.006455 -0.001539)

--------------------------
THERMOCHEMISTRY AT 298.15K
--------------------------

Temperature         ...   298.15 K
Pressure            ...     1.00 atm
Total Mass          ...    46.07 AMU
Quasi RRHO          ...     True
Cut-Off Frequency   ...     1.00 cm^-1

Throughout the following assumptions are being made:
  (1) The electronic state is orbitally nondegenerate
  (2) There are no thermally accessible electronically excited states
  (3) Hindered rotations indicated by low frequency modes are not
      treated as such but are treated as vibrations and this may
      cause some error
  (4) All equations used are the standard statistical mechanics
      equations for an ideal gas
  (5) All vibrations are strictly harmonic

freq.     291.98  E(vib)   ...       0.27
freq.     406.87  E(vib)   ...       0.19
freq.     568.92  E(vib)   ...       0.11
freq.     793.54  E(vib)   ...       0.05
freq.     901.32  E(vib)   ...       0.03
freq.    1042.12  E(vib)   ...       0.02
freq.    1148.18  E(vib)   ...       0.01
freq.    1165.24  E(vib)   ...       0.01
freq.    1258.33  E(vib)   ...       0.01
freq.    1282.79  E(vib)   ...       0.01
freq.    1332.37  E(vib)   ...       0.01
freq.    1407.67  E(vib)   ...       0.00
freq.    1423.07  E(vib)   ...       0.00
freq.    1429.30  E(vib)   ...       0.00
freq.    1451.56  E(vib)   ...       0.00
freq.    2917.05  E(vib)   ...       0.00
freq.    2952.07  E(vib)   ...       0.00
freq.    2959.19  E(vib)   ...       0.00
freq.    3047.22  E(vib)   ...       0.00
freq.    3047.71  E(vib)   ...       0.00
freq.    3470.07  E(vib)   ...       0.00

------------
INNER ENERGY
------------

The inner energy is: U= E(el) + E(ZPE) + E(vib) + E(rot) + E(trans)
    E(el)   - is the total energy from the electronic structure calculation
              = E(kin-el) + E(nuc-el) + E(el-el) + E(nuc-nuc)
    E(ZPE)  - the the zero temperature vibrational energy from the frequency calculation
    E(vib)  - the the finite temperature correction to E(ZPE) due to population
              of excited vibrational states
    E(rot)  - is the rotational thermal energy
    E(trans)- is the translational thermal energy

Summary of contributions to the inner energy U:
Electronic energy                ...   -154.91895619 Eh
Zero point energy                ...      0.07813337 Eh      49.03 kcal/mol
Thermal vibrational correction   ...      0.00117781 Eh       0.74 kcal/mol
Thermal rotational correction    ...      0.00141627 Eh       0.89 kcal/mol
Thermal translational correction ...      0.00141627 Eh       0.89 kcal/mol
-----------------------------------------------------------------------
Total thermal energy                   -154.83681246 Eh

Summary of corrections to the electronic energy:
(perhaps to be used in another calculation)
Total thermal correction                  0.00401035 Eh       2.52 kcal/mol
Non-thermal (ZPE) correction              0.07813337 Eh      49.03 kcal/mol
-----------------------------------------------------------------------
Total correction                          0.08214372 Eh      51.55 kcal/mol

--------
ENTHALPY
--------

The enthalpy is H = U + kB*T
                kB is Boltzmann's constant
Total thermal energy              ...   -154.83681246 Eh
Thermal Enthalpy correction       ...      0.00094421 Eh       0.59 kcal/mol
-----------------------------------------------------------------------
Total Enthalpy                    ...   -154.83586826 Eh

Note: Only C1 symmetry has been detected, increase convergence thresholds
      if your molecule has a higher symmetry. Symmetry factor of 1.0 is
      used for the rotational entropy correction.

Note: Rotational entropy computed according to Herzberg
Infrared and Raman Spectra, Chapter V,1, Van Nostrand Reinhold, 1945
Point Group:  C1, Symmetry Number:   1
Rotational constants in cm-1:     1.192997     0.309667     0.272285

Vibrational entropy computed according to the QRRHO of S. Grimme
Chem.Eur.J. 2012 18 9955 using a reference frequency of 100.0 cm-1

-------
ENTROPY
-------

The entropy contributions are T*S = T*(S(el)+S(vib)+S(rot)+S(trans))
     S(el)   - electronic entropy
     S(vib)  - vibrational entropy
     S(rot)  - rotational entropy
     S(trans)- translational entropy
The entropies will be listed as multiplied by the temperature to get
units of energy

Electronic entropy                ...      0.00000000 Eh      0.00 kcal/mol
Vibrational entropy               ...      0.00170717 Eh      1.07 kcal/mol
Rotational entropy                ...      0.01059506 Eh      6.65 kcal/mol
Translational entropy             ...      0.01777359 Eh     11.15 kcal/mol
-----------------------------------------------------------------------
Final entropy term                ...      0.03007582 Eh     18.87 kcal/mol

In case the symmetry of your molecule has not been determined correctly
or in case you have a reason to use a different symmetry number we print
out the resulting rotational entropy values for sn=1,12:

 non-linear molecules -----------------------------------
|  sn= 1 | S(rot)=       0.01059506 Eh      6.65 kcal/mol|
|  sn= 2 | S(rot)=       0.00994060 Eh      6.24 kcal/mol|
|  sn= 3 | S(rot)=       0.00955777 Eh      6.00 kcal/mol|
|  sn= 4 | S(rot)=       0.00928615 Eh      5.83 kcal/mol|
|  sn= 5 | S(rot)=       0.00907546 Eh      5.69 kcal/mol|
|  sn= 6 | S(rot)=       0.00890331 Eh      5.59 kcal/mol|
|  sn= 7 | S(rot)=       0.00875777 Eh      5.50 kcal/mol|
|  sn= 8 | S(rot)=       0.00863169 Eh      5.42 kcal/mol|
|  sn= 9 | S(rot)=       0.00852048 Eh      5.35 kcal/mol|
|  sn=10 | S(rot)=       0.00842100 Eh      5.28 kcal/mol|
|  sn=11 | S(rot)=       0.00833101 Eh      5.23 kcal/mol|
|  sn=12 | S(rot)=       0.00824886 Eh      5.18 kcal/mol|
 linear molecules ---------------------------------------
|  Dinfh | S(rot)=       0.00655410 Eh      4.11 kcal/mol|
|  Cinfv | S(rot)=       0.00720855 Eh      4.52 kcal/mol|
 --------------------------------------------------------

-------------------
GIBBS FREE ENERGY
-------------------

The Gibbs free energy is G = H - T*S

Total enthalpy                    ...   -154.83586826 Eh
Total entropy correction          ...     -0.03007582 Eh    -18.87 kcal/mol
-----------------------------------------------------------------------
Final Gibbs free energy         ...   -154.86594407 Eh

For completeness - the Gibbs free energy minus the electronic energy
G-E(el)                           ...      0.05301212 Eh     33.27 kcal/mol

                             ****ORCA TERMINATED NORMALLY****
TOTAL RUN TIME: 0 days 0 hours 1 minutes 27 seconds 425 msec
