                         Program Version 6.0.1  -  RELEASE   -
|  1> # avogadro generated ORCA input file
|  2> # Basic Mode
|  3> #
|  4> !BP86 DEF2-SVP NUMFREQ
|  5> %ELPROP
|  6>    POLAR 1
|  7> END
|  8> * xyz 0 1
|  9>    C       -4.32757        1.16257       -0.02268
| 10>    C       -2.87154        1.60036       -0.06503
| 11>    H       -4.82840        1.41352       -0.98185
| 12>    H       -4.85575        1.67572        0.80886
| 13>    H       -4.38506        0.06513        0.13706
| 14>    O       -2.80687        2.98394       -0.26834
| 15>    H       -2.36448        1.06909       -0.90114
| 16>    H       -2.38923        1.33694        0.90236
| 17>    H       -1.84187        3.20772       -0.32752
| 18> *
| 19>
| 20>
| 21>                          ****END OF INPUT****

CARTESIAN COORDINATES (ANGSTROEM)
---------------------------------
  C     -4.327570    1.162570   -0.022680
  C     -2.871540    1.600360   -0.065030
  H     -4.828400    1.413520   -0.981850
  H     -4.855750    1.675720    0.808860
  H     -4.385060    0.065130    0.137060
  O     -2.806870    2.983940   -0.268340
  H     -2.364480    1.069090   -0.901140
  H     -2.389230    1.336940    0.902360
  H     -1.841870    3.207720   -0.327520

 Total Charge           Charge          ....    0
 Multiplicity           Mult            ....    1
 Number of Electrons    NEL             ....   26
 Basis Dimension        Dim             ....   72

ORBITAL ENERGIES
----------------

  NO   OCC          E(Eh)            E(eV)
   0   2.0000     -18.767349      -510.6855
   1   2.0000      -9.951816      -270.8027
   2   2.0000      -9.903951      -269.5002
   3   2.0000      -0.916920       -24.9506
   4   2.0000      -0.665919       -18.1206
   5   2.0000      -0.534272       -14.5383
   6   2.0000      -0.460363       -12.5271
   7   2.0000      -0.413970       -11.2647
   8   2.0000      -0.353065        -9.6074
   9   2.0000      -0.335636        -9.1331
  10   2.0000      -0.317675        -8.6444
  11   2.0000      -0.277067        -7.5394
  12   2.0000      -0.213312        -5.8045
  13   0.0000       0.029161         0.7935
  14   0.0000       0.065491         1.7821
  15   0.0000       0.095351         2.5946
  16   0.0000       0.103745         2.8230
  17   0.0000       0.116105         3.1594

MULLIKEN ATOMIC CHARGES
-----------------------
   0 C :   -0.083951
   1 C :    0.087830
   2 H :    0.040471
   3 H :    0.041059
   4 H :    0.030093
   5 O :   -0.298330
   6 H :    0.005373
   7 H :    0.005286
   8 H :    0.172169
Sum of atomic charges:    0.0000000

LOEWDIN ATOMIC CHARGES
----------------------
   0 C :   -0.085365
   1 C :    0.040988
   2 H :    0.031441
   3 H :    0.031627
   4 H :    0.032876
   5 O :   -0.147608
   6 H :    0.002956
   7 H :    0.002661
   8 H :    0.090426

  Mayer bond orders larger than 0.100000
B(  0-C ,  1-C ) :   1.1164 B(  0-C ,  2-H ) :   0.9653 B(  0-C ,  3-H ) :   0.9654
B(  0-C ,  4-H ) :   0.9601 B(  1-C ,  5-O ) :   1.0875 B(  1-C ,  6-H ) :   0.9395
B(  1-C ,  7-H ) :   0.9385 B(  5-O ,  8-H ) :   0.9715

FINAL SINGLE POINT ENERGY      -154.918956183311

DIPOLE MOMENT
-------------

Method             : SCF
Type of density    : Electron Density
Multiplicity       :   1
Irrep              :   0
Energy             :  -154.9189561833106268 Eh
Relativity type    :
Basis              : AO
                                X                 Y                 Z
Electronic contribution:      1.288837204       2.436933936      -0.331144685
Nuclear contribution   :     -0.782222131      -2.726670917       0.355938385
                        -----------------------------------------
Total Dipole Moment    :      0.506615073      -0.289736981       0.024793700
                        -----------------------------------------
Magnitude (a.u.)       :      0.584141317
Magnitude (Debye)      :      1.484769231

VIBRATIONAL FREQUENCIES
-----------------------

Scaling factor for frequencies =  1.000000000  (already applied!)

     0:       0.00 cm**-1
     1:       0.00 cm**-1
     2:       0.00 cm**-1
     3:       0.00 cm**-1
     4:       0.00 cm**-1
     5:       0.00 cm**-1
     6:     292.79 cm**-1
     7:     407.67 cm**-1
     8:     568.98 cm**-1
     9:     795.92 cm**-1
    10:     899.26 cm**-1
    11:    1044.32 cm**-1
    12:    1148.21 cm**-1
    13:    1162.30 cm**-1
    14:    1250.73 cm**-1
    15:    1281.69 cm**-1
    16:    1332.92 cm**-1
    17:    1408.78 cm**-1
    18:    1425.01 cm**-1
    19:    1430.16 cm**-1
    20:    1457.29 cm**-1
    21:    2918.57 cm**-1
    22:    2951.91 cm**-1
    23:    2960.28 cm**-1
    24:    3046.94 cm**-1
    25:    3047.82 cm**-1
    26:    3465.46 cm**-1

IR SPECTRUM
-----------

 Mode   freq       eps      Int      T**2         TX        TY        TZ
       cm**-1   L/(mol*cm) km/mol    a.u.
----------------------------------------------------------------------------
  6:    292.79   0.000024    0.12  0.000026  (-0.001148  0.002344  0.004366)
  7:    407.67   0.001594    8.06  0.001220  (-0.013367 -0.031951  0.004561)
  8:    568.98   0.022669  114.56  0.012433  ( 0.002225  0.017590  0.110084)
  9:    795.92   0.000082    0.42  0.000032  ( 0.000754 -0.000499  0.005607)
 10:    899.26   0.000870    4.40  0.000302  ( 0.002803  0.016799 -0.003458)
 11:   1044.32   0.004417   22.32  0.001320  ( 0.012032  0.033808 -0.005675)
 12:   1148.21   0.001567    7.92  0.000426  ( 0.001627  0.008858 -0.018570)
 13:   1162.30   0.009160   46.29  0.002459  ( 0.005788  0.049093 -0.003953)
 14:   1250.73   0.000258    1.31  0.000064  ( 0.002134  0.007430  0.002170)
 15:   1281.69   0.021847  110.40  0.005319  (-0.010150 -0.071255  0.011785)
 16:   1332.92   0.001854    9.37  0.000434  (-0.010706 -0.017845  0.001028)
 17:   1408.78   0.000969    4.90  0.000215  ( 0.001839 -0.000578  0.014526)
 18:   1425.01   0.000708    3.58  0.000155  ( 0.011842 -0.001686 -0.003462)
 19:   1430.16   0.001093    5.52  0.000239  ( 0.006871 -0.013822  0.000511)
 20:   1457.29   0.001191    6.02  0.000255  ( 0.014803  0.005777 -0.001607)
 21:   2918.57   0.015133   76.47  0.001618  (-0.027849  0.028155 -0.007054)
 22:   2951.91   0.003624   18.32  0.000383  (-0.018309 -0.006266  0.002943)
 23:   2960.28   0.015379   77.72  0.001621  (-0.002103 -0.005095 -0.039885)
 24:   3046.94   0.006365   32.17  0.000652  ( 0.009704 -0.023272 -0.004019)
 25:   3047.82   0.008246   41.67  0.000844  ( 0.002711 -0.002719  0.028801)
 26:   3465.46   0.003135   15.84  0.000282  (-0.015464 -0.006395  0.001503)

--------------------------
THERMOCHEMISTRY AT 298.15K
--------------------------

Temperature         ...   298.15 K
Pressure            ...     1.00 atm
Total Mass          ...    46.07 AMU
Quasi RRHO          ...     True
Cut-Off Frequency   ...     1.00 cm^-1

Throughout the following assumptions are being made:
  (1) The electronic state is orbitally nondegenerate
  (2) There are no thermally accessible electronically excited states
  (3) Hindered rotations indicated by low frequency modes are not
      treated as such but are treated as vibrations and this may
      cause some error
  (4) All equations used are the standard statistical mechanics
      equations for an ideal gas
  (5) All vibrations are strictly harmonic

freq.     292.79  E(vib)   ...       0.27
freq.     407.67  E(vib)   ...       0.19
freq.     568.98  E(vib)   ...       0.11
freq.     795.92  E(vib)   ...       0.05
freq.     899.26  E(vib)   ...       0.03
freq.    1044.32  E(vib)   ...       0.02
freq.    1148.21  E(vib)   ...       0.01
freq.    1162.30  E(vib)   ...       0.01
freq.    1250.73  E(vib)   ...       0.01
freq.    1281.69  E(vib)   ...       0.01
freq.    1332.92  E(vib)   ...       0.01
freq.    1408.78  E(vib)   ...       0.00
freq.    1425.01  E(vib)   ...       0.00
freq.    1430.16  E(vib)   ...       0.00
freq.    1457.29  E(vib)   ...       0.00
freq.    2918.57  E(vib)   ...       0.00
freq.    2951.91  E(vib)   ...       0.00
freq.    2960.28  E(vib)   ...       0.00
freq.    3046.94  E(vib)   ...       0.00
freq.    3047.82  E(vib)   ...       0.00
freq.    3465.46  E(vib)   ...       0.00

------------
INNER ENERGY
------------

The inner energy is: U= E(el) + E(ZPE) + E(vib) + E(rot) + E(trans)
    E(el)   - is the total energy from the electronic structure calculation
              = E(kin-el) + E(nuc-el) + E(el-el) + E(nuc-nuc)
    E(ZPE)  - the the zero temperature vibrational energy from the frequency calculation
    E(vib)  - the the finite temperature correction to E(ZPE) due to population
              of excited vibrational states
    E(rot)  - is the rotational thermal energy
    E(trans)- is the translational thermal energy

Summary of contributions to the inner energy U:
Electronic energy                ...   -154.91895618 Eh
Zero point energy                ...      0.07813437 Eh      49.03 kcal/mol
Thermal vibrational correction   ...      0.00117585 Eh       0.74 kcal/mol
Thermal rotational correction    ...      0.00141627 Eh       0.89 kcal/mol
Thermal translational correction ...      0.00141627 Eh       0.89 kcal/mol
-----------------------------------------------------------------------
Total thermal energy                   -154.83681342 Eh

Summary of corrections to the electronic energy:
(perhaps to be used in another calculation)
Total thermal correction                  0.00400839 Eh       2.52 kcal/mol
Non-thermal (ZPE) correction              0.07813437 Eh      49.03 kcal/mol
-----------------------------------------------------------------------
Total correction                          0.08214276 Eh      51.55 kcal/mol

--------
ENTHALPY
--------

The enthalpy is H = U + kB*T
                kB is Boltzmann's constant
Total thermal energy              ...   -154.83681342 Eh
Thermal Enthalpy correction       ...      0.00094421 Eh       0.59 kcal/mol
-----------------------------------------------------------------------
Total Enthalpy                    ...   -154.83586921 Eh

Note: Only C1 symmetry has been detected, increase convergence thresholds
      if your molecule has a higher symmetry. Symmetry factor of 1.0 is
      used for the rotational entropy correction.

Note: Rotational entropy computed according to Herzberg
Infrared and Raman Spectra, Chapter V,1, Van Nostrand Reinhold, 1945
Point Group:  C1, Symmetry Number:   1
Rotational constants in cm-1:     1.192997     0.309667     0.272285

Vibrational entropy computed according to the QRRHO of S. Grimme
Chem.Eur.J. 2012 18 9955 using a reference frequency of 100.0 cm-1

-------
ENTROPY
-------

The entropy contributions are T*S = T*(S(el)+S(vib)+S(rot)+S(trans))
     S(el)   - electronic entropy
     S(vib)  - vibrational entropy
     S(rot)  - rotational entropy
     S(trans)- translational entropy
The entropies will be listed as multiplied by the temperature to get
units of energy

Electronic entropy                ...      0.00000000 Eh      0.00 kcal/mol
Vibrational entropy               ...      0.00170330 Eh      1.07 kcal/mol
Rotational entropy                ...      0.01059506 Eh      6.65 kcal/mol
Translational entropy             ...      0.01777359 Eh     11.15 kcal/mol
-----------------------------------------------------------------------
Final entropy term                ...      0.03007195 Eh     18.87 kcal/mol

In case the symmetry of your molecule has not been determined correctly
or in case you have a reason to use a different symmetry number we print
out the resulting rotational entropy values for sn=1,12:

 non-linear molecules -----------------------------------
|  sn= 1 | S(rot)=       0.01059506 Eh      6.65 kcal/mol|
|  sn= 2 | S(rot)=       0.00994060 Eh      6.24 kcal/mol|
|  sn= 3 | S(rot)=       0.00955777 Eh      6.00 kcal/mol|
|  sn= 4 | S(rot)=       0.00928615 Eh      5.83 kcal/mol|
|  sn= 5 | S(rot)=       0.00907546 Eh      5.69 kcal/mol|
|  sn= 6 | S(rot)=       0.00890331 Eh      5.59 kcal/mol|
|  sn= 7 | S(rot)=       0.00875777 Eh      5.50 kcal/mol|
|  sn= 8 | S(rot)=       0.00863169 Eh      5.42 kcal/mol|
|  sn= 9 | S(rot)=       0.00852048 Eh      5.35 kcal/mol|
|  sn=10 | S(rot)=       0.00842100 Eh      5.28 kcal/mol|
|  sn=11 | S(rot)=       0.00833101 Eh      5.23 kcal/mol|
|  sn=12 | S(rot)=       0.00824886 Eh      5.18 kcal/mol|
 linear molecules ---------------------------------------
|  Dinfh | S(rot)=       0.00655410 Eh      4.11 kcal/mol|
|  Cinfv | S(rot)=       0.00720855 Eh      4.52 kcal/mol|
 --------------------------------------------------------

-------------------
GIBBS FREE ENERGY
-------------------

The Gibbs free energy is G = H - T*S

Total enthalpy                    ...   -154.83586921 Eh
Total entropy correction          ...     -0.03007195 Eh    -18.87 kcal/mol
-----------------------------------------------------------------------
Final Gibbs free energy         ...   -154.86594116 Eh

For completeness - the Gibbs free energy minus the electronic energy
G-E(el)                           ...      0.05301502 Eh     33.27 kcal/mol

                             ****ORCA TERMINATED NORMALLY****
TOTAL RUN TIME: 0 days 0 hours 1 minutes 58 seconds 441 msec
